# atom1, xyz1, atom2, xyz2, FC2 (Ryd/Bohr^2)
    1    1     1    1    2.831154850161913e-01
    1    1     1    2    0.000000000000000e+00
    1    1     1    3    0.000000000000000e+00
    1    1     2    1   -9.850793516399327e-04
    1    1     2    2    0.000000000000000e+00
    1    1     2    3    0.000000000000000e+00
    1    1     3    1    9.239296337944510e-03
    1    1     3    2    2.150037548452817e-03
    1    1     3    3    2.150037548452817e-03
    1    1     4    1    9.239296337944510e-03
    1    1     4    2   -2.150037548452817e-03
    1    1     4    3    2.150037548452817e-03
    1    1     5    1   -9.850793516399327e-04
    1    1     5    2    0.000000000000000e+00
    1    1     5    3    0.000000000000000e+00
    1    1     6    1    8.400202104656614e-03
    1    1     6    2    0.000000000000000e+00
    1    1     6    3    0.000000000000000e+00
    1    1     7    1    9.239296337944510e-03
    1    1     7    2    2.150037548452817e-03
    1    1     7    3   -2.150037548452817e-03
    1    1     8    1    9.239296337944510e-03
    1    1     8    2   -2.150037548452817e-03
    1    1     8    3   -2.150037548452817e-03
    1    1     9    1   -6.920106223274695e-02
    1    1     9    2   -4.795917623596027e-02
    1    1     9    3   -4.795917623596027e-02
    1    1    10    1    1.059958868206856e-03
    1    1    10    2   -8.563656219820275e-04
    1    1    10    3   -7.316630032147531e-04
    1    1    11    1   -4.490061994617064e-03
    1    1    11    2    4.912131791662808e-04
    1    1    11    3    4.912131791662808e-04
    1    1    12    1    1.059958868206856e-03
    1    1    12    2    7.316630032147531e-04
    1    1    12    3    8.563656219820275e-04
    1    1    13    1    1.059958868206856e-03
    1    1    13    2   -7.316630032147531e-04
    1    1    13    3   -8.563656219820275e-04
    1    1    14    1   -4.490061994617064e-03
    1    1    14    2   -4.912131791662808e-04
    1    1    14    3   -4.912131791662808e-04
    1    1    15    1    1.059958868206856e-03
    1    1    15    2    8.563656219820275e-04
    1    1    15    3    7.316630032147531e-04
    1    1    16    1   -6.920106223274695e-02
    1    1    16    2    4.795917623596027e-02
    1    1    16    3    4.795917623596027e-02
    1    1    17    1   -4.029416570018272e-03
    1    1    17    2   -2.150037548452817e-03
    1    1    17    3   -3.936948259667413e-03
    1    1    18    1   -4.029416570018272e-03
    1    1    18    2    2.150037548452817e-03
    1    1    18    3    3.936948259667413e-03
    1    1    19    1   -4.029416570018272e-03
    1    1    19    2   -3.936948259667413e-03
    1    1    19    3   -2.150037548452817e-03
    1    1    20    1   -7.478900251506308e-04
    1    1    20    2    1.333608421860323e-03
    1    1    20    3   -1.772810296471708e-04
    1    1    21    1   -7.478900251506308e-04
    1    1    21    2   -1.772810296471708e-04
    1    1    21    3    1.333608421860323e-03
    1    1    22    1   -7.478900251506308e-04
    1    1    22    2    1.772810296471708e-04
    1    1    22    3   -1.333608421860323e-03
    1    1    23    1   -4.029416570018272e-03
    1    1    23    2    3.936948259667413e-03
    1    1    23    3    2.150037548452817e-03
    1    1    24    1   -7.478900251506308e-04
    1    1    24    2   -1.333608421860323e-03
    1    1    24    3    1.772810296471708e-04
    1    1    25    1   -5.137238501780821e-04
    1    1    25    2    4.912131791662808e-04
    1    1    25    3   -4.241690325311883e-04
    1    1    26    1    2.093153751060158e-04
    1    1    26    2    7.316630032147531e-04
    1    1    26    3   -7.316630032147531e-04
    1    1    27    1   -5.137238501780821e-04
    1    1    27    2   -4.241690325311883e-04
    1    1    27    3    4.912131791662808e-04
    1    1    28    1    3.306403959423844e-04
    1    1    28    2   -5.379286470253613e-04
    1    1    28    3    5.379286470253613e-04
    1    1    29    1    3.306403959423844e-04
    1    1    29    2    5.379286470253613e-04
    1    1    29    3   -5.379286470253613e-04
    1    1    30    1   -5.137238501780821e-04
    1    1    30    2    4.241690325311883e-04
    1    1    30    3   -4.912131791662808e-04
    1    1    31    1    2.093153751060158e-04
    1    1    31    2   -7.316630032147531e-04
    1    1    31    3    7.316630032147531e-04
    1    1    32    1   -5.137238501780821e-04
    1    1    32    2   -4.912131791662808e-04
    1    1    32    3    4.241690325311883e-04
    1    1    33    1   -4.620027664225142e-04
    1    1    33    2    0.000000000000000e+00
    1    1    33    3    0.000000000000000e+00
    1    1    34    1    1.119510628383606e-04
    1    1    34    2    0.000000000000000e+00
    1    1    34    3    0.000000000000000e+00
    1    1    35    1    4.715832844579172e-05
    1    1    35    2    1.772810296471708e-04
    1    1    35    3    1.772810296471708e-04
    1    1    36    1    4.715832844579172e-05
    1    1    36    2   -1.772810296471708e-04
    1    1    36    3    1.772810296471708e-04
    1    1    37    1    1.119510628383606e-04
    1    1    37    2    0.000000000000000e+00
    1    1    37    3    0.000000000000000e+00
    1    1    38    1    0.000000000000000e+00
    1    1    38    2    0.000000000000000e+00
    1    1    38    3    0.000000000000000e+00
    1    1    39    1    4.715832844579172e-05
    1    1    39    2    1.772810296471708e-04
    1    1    39    3   -1.772810296471708e-04
    1    1    40    1    4.715832844579172e-05
    1    1    40    2   -1.772810296471708e-04
    1    1    40    3   -1.772810296471708e-04
    1    1    41    1    2.093153751060158e-04
    1    1    41    2   -7.316630032147531e-04
    1    1    41    3   -7.316630032147531e-04
    1    1    42    1   -5.137238501780821e-04
    1    1    42    2   -4.912131791662808e-04
    1    1    42    3   -4.241690325311883e-04
    1    1    43    1    3.306403959423844e-04
    1    1    43    2    5.379286470253613e-04
    1    1    43    3    5.379286470253613e-04
    1    1    44    1   -5.137238501780821e-04
    1    1    44    2    4.241690325311883e-04
    1    1    44    3    4.912131791662808e-04
    1    1    45    1   -5.137238501780821e-04
    1    1    45    2   -4.241690325311883e-04
    1    1    45    3   -4.912131791662808e-04
    1    1    46    1    3.306403959423844e-04
    1    1    46    2   -5.379286470253613e-04
    1    1    46    3   -5.379286470253613e-04
    1    1    47    1   -5.137238501780821e-04
    1    1    47    2    4.912131791662808e-04
    1    1    47    3    4.241690325311883e-04
    1    1    48    1    2.093153751060158e-04
    1    1    48    2    7.316630032147531e-04
    1    1    48    3    7.316630032147531e-04
    1    1    49    1   -4.029416570018272e-03
    1    1    49    2   -2.150037548452817e-03
    1    1    49    3    3.936948259667413e-03
    1    1    50    1   -4.029416570018272e-03
    1    1    50    2    2.150037548452817e-03
    1    1    50    3   -3.936948259667413e-03
    1    1    51    1   -4.029416570018272e-03
    1    1    51    2    3.936948259667413e-03
    1    1    51    3   -2.150037548452817e-03
    1    1    52    1   -7.478900251506308e-04
    1    1    52    2   -1.333608421860323e-03
    1    1    52    3   -1.772810296471708e-04
    1    1    53    1   -7.478900251506308e-04
    1    1    53    2   -1.772810296471708e-04
    1    1    53    3   -1.333608421860323e-03
    1    1    54    1   -7.478900251506308e-04
    1    1    54    2    1.772810296471708e-04
    1    1    54    3    1.333608421860323e-03
    1    1    55    1   -4.029416570018272e-03
    1    1    55    2   -3.936948259667413e-03
    1    1    55    3    2.150037548452817e-03
    1    1    56    1   -7.478900251506308e-04
    1    1    56    2    1.333608421860323e-03
    1    1    56    3    1.772810296471708e-04
    1    1    57    1    1.059958868206856e-03
    1    1    57    2    8.563656219820275e-04
    1    1    57    3   -7.316630032147531e-04
    1    1    58    1   -6.920106223274695e-02
    1    1    58    2    4.795917623596027e-02
    1    1    58    3   -4.795917623596027e-02
    1    1    59    1    1.059958868206856e-03
    1    1    59    2   -7.316630032147531e-04
    1    1    59    3    8.563656219820275e-04
    1    1    60    1   -4.490061994617064e-03
    1    1    60    2   -4.912131791662808e-04
    1    1    60    3    4.912131791662808e-04
    1    1    61    1   -4.490061994617064e-03
    1    1    61    2    4.912131791662808e-04
    1    1    61    3   -4.912131791662808e-04
    1    1    62    1    1.059958868206856e-03
    1    1    62    2    7.316630032147531e-04
    1    1    62    3   -8.563656219820275e-04
    1    1    63    1   -6.920106223274695e-02
    1    1    63    2   -4.795917623596027e-02
    1    1    63    3    4.795917623596027e-02
    1    1    64    1    1.059958868206856e-03
    1    1    64    2   -8.563656219820275e-04
    1    1    64    3    7.316630032147531e-04
    1    2     1    1    0.000000000000000e+00
    1    2     1    2    2.831154850161913e-01
    1    2     1    3    0.000000000000000e+00
    1    2     2    1    0.000000000000000e+00
    1    2     2    2   -9.850793516399327e-04
    1    2     2    3    0.000000000000000e+00
    1    2     3    1   -2.150037548452817e-03
    1    2     3    2   -4.029416570018272e-03
    1    2     3    3   -3.936948259667413e-03
    1    2     4    1    2.150037548452817e-03
    1    2     4    2   -4.029416570018272e-03
    1    2     4    3    3.936948259667413e-03
    1    2     5    1    0.000000000000000e+00
    1    2     5    2   -4.620027664225142e-04
    1    2     5    3    0.000000000000000e+00
    1    2     6    1    0.000000000000000e+00
    1    2     6    2    1.119510628383606e-04
    1    2     6    3    0.000000000000000e+00
    1    2     7    1   -2.150037548452817e-03
    1    2     7    2   -4.029416570018272e-03
    1    2     7    3    3.936948259667413e-03
    1    2     8    1    2.150037548452817e-03
    1    2     8    2   -4.029416570018272e-03
    1    2     8    3   -3.936948259667413e-03
    1    2     9    1   -4.795917623596027e-02
    1    2     9    2   -6.920106223274695e-02
    1    2     9    3   -4.795917623596027e-02
    1    2    10    1   -8.563656219820275e-04
    1    2    10    2    1.059958868206856e-03
    1    2    10    3   -7.316630032147531e-04
    1    2    11    1    4.912131791662808e-04
    1    2    11    2   -5.137238501780821e-04
    1    2    11    3   -4.241690325311883e-04
    1    2    12    1    7.316630032147531e-04
    1    2    12    2    2.093153751060158e-04
    1    2    12    3   -7.316630032147531e-04
    1    2    13    1   -7.316630032147531e-04
    1    2    13    2    2.093153751060158e-04
    1    2    13    3   -7.316630032147531e-04
    1    2    14    1   -4.912131791662808e-04
    1    2    14    2   -5.137238501780821e-04
    1    2    14    3   -4.241690325311883e-04
    1    2    15    1    8.563656219820275e-04
    1    2    15    2    1.059958868206856e-03
    1    2    15    3   -7.316630032147531e-04
    1    2    16    1    4.795917623596027e-02
    1    2    16    2   -6.920106223274695e-02
    1    2    16    3   -4.795917623596027e-02
    1    2    17    1    2.150037548452817e-03
    1    2    17    2    9.239296337944510e-03
    1    2    17    3    2.150037548452817e-03
    1    2    18    1   -2.150037548452817e-03
    1    2    18    2    9.239296337944510e-03
    1    2    18    3    2.150037548452817e-03
    1    2    19    1   -3.936948259667413e-03
    1    2    19    2   -4.029416570018272e-03
    1    2    19    3   -2.150037548452817e-03
    1    2    20    1    1.333608421860323e-03
    1    2    20    2   -7.478900251506308e-04
    1    2    20    3   -1.772810296471708e-04
    1    2    21    1    1.772810296471708e-04
    1    2    21    2    4.715832844579172e-05
    1    2    21    3    1.772810296471708e-04
    1    2    22    1   -1.772810296471708e-04
    1    2    22    2    4.715832844579172e-05
    1    2    22    3    1.772810296471708e-04
    1    2    23    1    3.936948259667413e-03
    1    2    23    2   -4.029416570018272e-03
    1    2    23    3   -2.150037548452817e-03
    1    2    24    1   -1.333608421860323e-03
    1    2    24    2   -7.478900251506308e-04
    1    2    24    3   -1.772810296471708e-04
    1    2    25    1    4.912131791662808e-04
    1    2    25    2   -4.490061994617064e-03
    1    2    25    3    4.912131791662808e-04
    1    2    26    1    7.316630032147531e-04
    1    2    26    2    1.059958868206856e-03
    1    2    26    3    8.563656219820275e-04
    1    2    27    1   -4.241690325311883e-04
    1    2    27    2   -5.137238501780821e-04
    1    2    27    3    4.912131791662808e-04
    1    2    28    1   -5.379286470253613e-04
    1    2    28    2    3.306403959423844e-04
    1    2    28    3    5.379286470253613e-04
    1    2    29    1    5.379286470253613e-04
    1    2    29    2    3.306403959423844e-04
    1    2    29    3    5.379286470253613e-04
    1    2    30    1    4.241690325311883e-04
    1    2    30    2   -5.137238501780821e-04
    1    2    30    3    4.912131791662808e-04
    1    2    31    1   -7.316630032147531e-04
    1    2    31    2    1.059958868206856e-03
    1    2    31    3    8.563656219820275e-04
    1    2    32    1   -4.912131791662808e-04
    1    2    32    2   -4.490061994617064e-03
    1    2    32    3    4.912131791662808e-04
    1    2    33    1    0.000000000000000e+00
    1    2    33    2   -9.850793516399327e-04
    1    2    33    3    0.000000000000000e+00
    1    2    34    1    0.000000000000000e+00
    1    2    34    2    8.400202104656614e-03
    1    2    34    3    0.000000000000000e+00
    1    2    35    1   -1.772810296471708e-04
    1    2    35    2   -7.478900251506308e-04
    1    2    35    3    1.333608421860323e-03
    1    2    36    1    1.772810296471708e-04
    1    2    36    2   -7.478900251506308e-04
    1    2    36    3   -1.333608421860323e-03
    1    2    37    1    0.000000000000000e+00
    1    2    37    2    1.119510628383606e-04
    1    2    37    3    0.000000000000000e+00
    1    2    38    1    0.000000000000000e+00
    1    2    38    2    0.000000000000000e+00
    1    2    38    3    0.000000000000000e+00
    1    2    39    1   -1.772810296471708e-04
    1    2    39    2   -7.478900251506308e-04
    1    2    39    3   -1.333608421860323e-03
    1    2    40    1    1.772810296471708e-04
    1    2    40    2   -7.478900251506308e-04
    1    2    40    3    1.333608421860323e-03
    1    2    41    1   -7.316630032147531e-04
    1    2    41    2    1.059958868206856e-03
    1    2    41    3   -8.563656219820275e-04
    1    2    42    1   -4.912131791662808e-04
    1    2    42    2   -4.490061994617064e-03
    1    2    42    3   -4.912131791662808e-04
    1    2    43    1    5.379286470253613e-04
    1    2    43    2    3.306403959423844e-04
    1    2    43    3   -5.379286470253613e-04
    1    2    44    1    4.241690325311883e-04
    1    2    44    2   -5.137238501780821e-04
    1    2    44    3   -4.912131791662808e-04
    1    2    45    1   -4.241690325311883e-04
    1    2    45    2   -5.137238501780821e-04
    1    2    45    3   -4.912131791662808e-04
    1    2    46    1   -5.379286470253613e-04
    1    2    46    2    3.306403959423844e-04
    1    2    46    3   -5.379286470253613e-04
    1    2    47    1    4.912131791662808e-04
    1    2    47    2   -4.490061994617064e-03
    1    2    47    3   -4.912131791662808e-04
    1    2    48    1    7.316630032147531e-04
    1    2    48    2    1.059958868206856e-03
    1    2    48    3   -8.563656219820275e-04
    1    2    49    1    2.150037548452817e-03
    1    2    49    2    9.239296337944510e-03
    1    2    49    3   -2.150037548452817e-03
    1    2    50    1   -2.150037548452817e-03
    1    2    50    2    9.239296337944510e-03
    1    2    50    3   -2.150037548452817e-03
    1    2    51    1    3.936948259667413e-03
    1    2    51    2   -4.029416570018272e-03
    1    2    51    3    2.150037548452817e-03
    1    2    52    1   -1.333608421860323e-03
    1    2    52    2   -7.478900251506308e-04
    1    2    52    3    1.772810296471708e-04
    1    2    53    1    1.772810296471708e-04
    1    2    53    2    4.715832844579172e-05
    1    2    53    3   -1.772810296471708e-04
    1    2    54    1   -1.772810296471708e-04
    1    2    54    2    4.715832844579172e-05
    1    2    54    3   -1.772810296471708e-04
    1    2    55    1   -3.936948259667413e-03
    1    2    55    2   -4.029416570018272e-03
    1    2    55    3    2.150037548452817e-03
    1    2    56    1    1.333608421860323e-03
    1    2    56    2   -7.478900251506308e-04
    1    2    56    3    1.772810296471708e-04
    1    2    57    1    8.563656219820275e-04
    1    2    57    2    1.059958868206856e-03
    1    2    57    3    7.316630032147531e-04
    1    2    58    1    4.795917623596027e-02
    1    2    58    2   -6.920106223274695e-02
    1    2    58    3    4.795917623596027e-02
    1    2    59    1   -7.316630032147531e-04
    1    2    59    2    2.093153751060158e-04
    1    2    59    3    7.316630032147531e-04
    1    2    60    1   -4.912131791662808e-04
    1    2    60    2   -5.137238501780821e-04
    1    2    60    3    4.241690325311883e-04
    1    2    61    1    4.912131791662808e-04
    1    2    61    2   -5.137238501780821e-04
    1    2    61    3    4.241690325311883e-04
    1    2    62    1    7.316630032147531e-04
    1    2    62    2    2.093153751060158e-04
    1    2    62    3    7.316630032147531e-04
    1    2    63    1   -4.795917623596027e-02
    1    2    63    2   -6.920106223274695e-02
    1    2    63    3    4.795917623596027e-02
    1    2    64    1   -8.563656219820275e-04
    1    2    64    2    1.059958868206856e-03
    1    2    64    3    7.316630032147531e-04
    1    3     1    1    0.000000000000000e+00
    1    3     1    2    0.000000000000000e+00
    1    3     1    3    2.831154850161913e-01
    1    3     2    1    0.000000000000000e+00
    1    3     2    2    0.000000000000000e+00
    1    3     2    3   -4.620027664225142e-04
    1    3     3    1   -2.150037548452817e-03
    1    3     3    2   -3.936948259667413e-03
    1    3     3    3   -4.029416570018272e-03
    1    3     4    1   -2.150037548452817e-03
    1    3     4    2    3.936948259667413e-03
    1    3     4    3   -4.029416570018272e-03
    1    3     5    1    0.000000000000000e+00
    1    3     5    2    0.000000000000000e+00
    1    3     5    3   -9.850793516399327e-04
    1    3     6    1    0.000000000000000e+00
    1    3     6    2    0.000000000000000e+00
    1    3     6    3    1.119510628383606e-04
    1    3     7    1    2.150037548452817e-03
    1    3     7    2    3.936948259667413e-03
    1    3     7    3   -4.029416570018272e-03
    1    3     8    1    2.150037548452817e-03
    1    3     8    2   -3.936948259667413e-03
    1    3     8    3   -4.029416570018272e-03
    1    3     9    1   -4.795917623596027e-02
    1    3     9    2   -4.795917623596027e-02
    1    3     9    3   -6.920106223274695e-02
    1    3    10    1   -7.316630032147531e-04
    1    3    10    2   -7.316630032147531e-04
    1    3    10    3    2.093153751060158e-04
    1    3    11    1    4.912131791662808e-04
    1    3    11    2   -4.241690325311883e-04
    1    3    11    3   -5.137238501780821e-04
    1    3    12    1    8.563656219820275e-04
    1    3    12    2   -7.316630032147531e-04
    1    3    12    3    1.059958868206856e-03
    1    3    13    1   -8.563656219820275e-04
    1    3    13    2   -7.316630032147531e-04
    1    3    13    3    1.059958868206856e-03
    1    3    14    1   -4.912131791662808e-04
    1    3    14    2   -4.241690325311883e-04
    1    3    14    3   -5.137238501780821e-04
    1    3    15    1    7.316630032147531e-04
    1    3    15    2   -7.316630032147531e-04
    1    3    15    3    2.093153751060158e-04
    1    3    16    1    4.795917623596027e-02
    1    3    16    2   -4.795917623596027e-02
    1    3    16    3   -6.920106223274695e-02
    1    3    17    1   -3.936948259667413e-03
    1    3    17    2   -2.150037548452817e-03
    1    3    17    3   -4.029416570018272e-03
    1    3    18    1    3.936948259667413e-03
    1    3    18    2   -2.150037548452817e-03
    1    3    18    3   -4.029416570018272e-03
    1    3    19    1    2.150037548452817e-03
    1    3    19    2    2.150037548452817e-03
    1    3    19    3    9.239296337944510e-03
    1    3    20    1    1.772810296471708e-04
    1    3    20    2    1.772810296471708e-04
    1    3    20    3    4.715832844579172e-05
    1    3    21    1    1.333608421860323e-03
    1    3    21    2   -1.772810296471708e-04
    1    3    21    3   -7.478900251506308e-04
    1    3    22    1   -1.333608421860323e-03
    1    3    22    2   -1.772810296471708e-04
    1    3    22    3   -7.478900251506308e-04
    1    3    23    1   -2.150037548452817e-03
    1    3    23    2    2.150037548452817e-03
    1    3    23    3    9.239296337944510e-03
    1    3    24    1   -1.772810296471708e-04
    1    3    24    2    1.772810296471708e-04
    1    3    24    3    4.715832844579172e-05
    1    3    25    1   -4.241690325311883e-04
    1    3    25    2    4.912131791662808e-04
    1    3    25    3   -5.137238501780821e-04
    1    3    26    1   -7.316630032147531e-04
    1    3    26    2    8.563656219820275e-04
    1    3    26    3    1.059958868206856e-03
    1    3    27    1    4.912131791662808e-04
    1    3    27    2    4.912131791662808e-04
    1    3    27    3   -4.490061994617064e-03
    1    3    28    1    5.379286470253613e-04
    1    3    28    2    5.379286470253613e-04
    1    3    28    3    3.306403959423844e-04
    1    3    29    1   -5.379286470253613e-04
    1    3    29    2    5.379286470253613e-04
    1    3    29    3    3.306403959423844e-04
    1    3    30    1   -4.912131791662808e-04
    1    3    30    2    4.912131791662808e-04
    1    3    30    3   -4.490061994617064e-03
    1    3    31    1    7.316630032147531e-04
    1    3    31    2    8.563656219820275e-04
    1    3    31    3    1.059958868206856e-03
    1    3    32    1    4.241690325311883e-04
    1    3    32    2    4.912131791662808e-04
    1    3    32    3   -5.137238501780821e-04
    1    3    33    1    0.000000000000000e+00
    1    3    33    2    0.000000000000000e+00
    1    3    33    3   -9.850793516399327e-04
    1    3    34    1    0.000000000000000e+00
    1    3    34    2    0.000000000000000e+00
    1    3    34    3    1.119510628383606e-04
    1    3    35    1   -1.772810296471708e-04
    1    3    35    2    1.333608421860323e-03
    1    3    35    3   -7.478900251506308e-04
    1    3    36    1   -1.772810296471708e-04
    1    3    36    2   -1.333608421860323e-03
    1    3    36    3   -7.478900251506308e-04
    1    3    37    1    0.000000000000000e+00
    1    3    37    2    0.000000000000000e+00
    1    3    37    3    8.400202104656614e-03
    1    3    38    1    0.000000000000000e+00
    1    3    38    2    0.000000000000000e+00
    1    3    38    3    0.000000000000000e+00
    1    3    39    1    1.772810296471708e-04
    1    3    39    2   -1.333608421860323e-03
    1    3    39    3   -7.478900251506308e-04
    1    3    40    1    1.772810296471708e-04
    1    3    40    2    1.333608421860323e-03
    1    3    40    3   -7.478900251506308e-04
    1    3    41    1   -7.316630032147531e-04
    1    3    41    2   -8.563656219820275e-04
    1    3    41    3    1.059958868206856e-03
    1    3    42    1   -4.241690325311883e-04
    1    3    42    2   -4.912131791662808e-04
    1    3    42    3   -5.137238501780821e-04
    1    3    43    1    5.379286470253613e-04
    1    3    43    2   -5.379286470253613e-04
    1    3    43    3    3.306403959423844e-04
    1    3    44    1    4.912131791662808e-04
    1    3    44    2   -4.912131791662808e-04
    1    3    44    3   -4.490061994617064e-03
    1    3    45    1   -4.912131791662808e-04
    1    3    45    2   -4.912131791662808e-04
    1    3    45    3   -4.490061994617064e-03
    1    3    46    1   -5.379286470253613e-04
    1    3    46    2   -5.379286470253613e-04
    1    3    46    3    3.306403959423844e-04
    1    3    47    1    4.241690325311883e-04
    1    3    47    2   -4.912131791662808e-04
    1    3    47    3   -5.137238501780821e-04
    1    3    48    1    7.316630032147531e-04
    1    3    48    2   -8.563656219820275e-04
    1    3    48    3    1.059958868206856e-03
    1    3    49    1    3.936948259667413e-03
    1    3    49    2    2.150037548452817e-03
    1    3    49    3   -4.029416570018272e-03
    1    3    50    1   -3.936948259667413e-03
    1    3    50    2    2.150037548452817e-03
    1    3    50    3   -4.029416570018272e-03
    1    3    51    1    2.150037548452817e-03
    1    3    51    2   -2.150037548452817e-03
    1    3    51    3    9.239296337944510e-03
    1    3    52    1    1.772810296471708e-04
    1    3    52    2   -1.772810296471708e-04
    1    3    52    3    4.715832844579172e-05
    1    3    53    1   -1.333608421860323e-03
    1    3    53    2    1.772810296471708e-04
    1    3    53    3   -7.478900251506308e-04
    1    3    54    1    1.333608421860323e-03
    1    3    54    2    1.772810296471708e-04
    1    3    54    3   -7.478900251506308e-04
    1    3    55    1   -2.150037548452817e-03
    1    3    55    2   -2.150037548452817e-03
    1    3    55    3    9.239296337944510e-03
    1    3    56    1   -1.772810296471708e-04
    1    3    56    2   -1.772810296471708e-04
    1    3    56    3    4.715832844579172e-05
    1    3    57    1   -7.316630032147531e-04
    1    3    57    2    7.316630032147531e-04
    1    3    57    3    2.093153751060158e-04
    1    3    58    1   -4.795917623596027e-02
    1    3    58    2    4.795917623596027e-02
    1    3    58    3   -6.920106223274695e-02
    1    3    59    1    8.563656219820275e-04
    1    3    59    2    7.316630032147531e-04
    1    3    59    3    1.059958868206856e-03
    1    3    60    1    4.912131791662808e-04
    1    3    60    2    4.241690325311883e-04
    1    3    60    3   -5.137238501780821e-04
    1    3    61    1   -4.912131791662808e-04
    1    3    61    2    4.241690325311883e-04
    1    3    61    3   -5.137238501780821e-04
    1    3    62    1   -8.563656219820275e-04
    1    3    62    2    7.316630032147531e-04
    1    3    62    3    1.059958868206856e-03
    1    3    63    1    4.795917623596027e-02
    1    3    63    2    4.795917623596027e-02
    1    3    63    3   -6.920106223274695e-02
    1    3    64    1    7.316630032147531e-04
    1    3    64    2    7.316630032147531e-04
    1    3    64    3    2.093153751060158e-04
    2    1     1    1   -9.850793516399327e-04
    2    1     1    2    0.000000000000000e+00
    2    1     1    3    0.000000000000000e+00
    2    1     2    1    2.831154850161913e-01
    2    1     2    2    0.000000000000000e+00
    2    1     2    3    0.000000000000000e+00
    2    1     3    1    9.239296337944510e-03
    2    1     3    2   -2.150037548452817e-03
    2    1     3    3    2.150037548452817e-03
    2    1     4    1    9.239296337944510e-03
    2    1     4    2    2.150037548452817e-03
    2    1     4    3    2.150037548452817e-03
    2    1     5    1    8.400202104656614e-03
    2    1     5    2    0.000000000000000e+00
    2    1     5    3    0.000000000000000e+00
    2    1     6    1   -9.850793516399327e-04
    2    1     6    2    0.000000000000000e+00
    2    1     6    3    0.000000000000000e+00
    2    1     7    1    9.239296337944510e-03
    2    1     7    2   -2.150037548452817e-03
    2    1     7    3   -2.150037548452817e-03
    2    1     8    1    9.239296337944510e-03
    2    1     8    2    2.150037548452817e-03
    2    1     8    3   -2.150037548452817e-03
    2    1     9    1    1.059958868206856e-03
    2    1     9    2   -8.563656219820275e-04
    2    1     9    3   -7.316630032147531e-04
    2    1    10    1   -6.920106223274695e-02
    2    1    10    2   -4.795917623596027e-02
    2    1    10    3   -4.795917623596027e-02
    2    1    11    1    1.059958868206856e-03
    2    1    11    2    7.316630032147531e-04
    2    1    11    3    8.563656219820275e-04
    2    1    12    1   -4.490061994617064e-03
    2    1    12    2    4.912131791662808e-04
    2    1    12    3    4.912131791662808e-04
    2    1    13    1   -4.490061994617064e-03
    2    1    13    2   -4.912131791662808e-04
    2    1    13    3   -4.912131791662808e-04
    2    1    14    1    1.059958868206856e-03
    2    1    14    2   -7.316630032147531e-04
    2    1    14    3   -8.563656219820275e-04
    2    1    15    1   -6.920106223274695e-02
    2    1    15    2    4.795917623596027e-02
    2    1    15    3    4.795917623596027e-02
    2    1    16    1    1.059958868206856e-03
    2    1    16    2    8.563656219820275e-04
    2    1    16    3    7.316630032147531e-04
    2    1    17    1   -4.029416570018272e-03
    2    1    17    2    2.150037548452817e-03
    2    1    17    3    3.936948259667413e-03
    2    1    18    1   -4.029416570018272e-03
    2    1    18    2   -2.150037548452817e-03
    2    1    18    3   -3.936948259667413e-03
    2    1    19    1   -7.478900251506308e-04
    2    1    19    2    1.333608421860323e-03
    2    1    19    3   -1.772810296471708e-04
    2    1    20    1   -4.029416570018272e-03
    2    1    20    2   -3.936948259667413e-03
    2    1    20    3   -2.150037548452817e-03
    2    1    21    1   -7.478900251506308e-04